95
# ORCA AIMD Position Step 500, t=500.00 fs, E_Pot=-2377.43865523 Hartree, Unit is Angstrom
 C     -0.4216901378      7.8480921389      3.3939225697
 O     -0.6794395988      8.7715685111      3.9675109420
 O     -0.1478306150      6.9300913248      2.8153027169
 C     -1.7979104721      3.3855916046      2.6620487676
 C     -2.4864545184      3.4771053548      3.8482289428
 C     -1.9382932799      3.4938963890      5.1118599027
 C     -2.6315783778      3.4481896835      1.4181474859
 C     -2.7336955584      4.8067531320      0.6093865294
 C     -3.9171030366      5.5358068596      0.5879001904
 C     -3.9812388910      6.9284414995      0.2108060755
 C     -1.7503876362      6.7094261959     -0.5458633277
 C     -1.5859172152      5.3103320707     -0.1096669359
 H     -4.6726051042      5.0408497747      1.2494015564
 H     -2.3549039792      2.6307533321      0.7325755166
 H     -3.6407538743      3.1997581856      1.7857779403
 H     -3.5628477001      3.6119259600      3.7612603181
 O     -2.8162707406      3.7758965889      6.1630847376
 C     -3.5040081568      4.9797023839      5.9213553321
 C     -2.6820047219      6.2548990970      5.6067914622
 N     -2.8992822238      7.4890802493      6.4569173786
 H     -4.0247844530      5.2881681974      6.8243448338
 H     -4.2278583899      4.7362256702      5.1892589323
 H     -2.6994778369      7.3996736899      7.4784391946
 H     -4.9554762081      9.5347025824      2.5022688981
 H     -3.3360156649      9.2860065271      1.5384692001
 O     -0.4194183487      4.7542412523     -0.2527486353
 H     -3.8043038878      7.9421080933      6.3461101362
 H     -1.6337973625      6.0933896290      5.5626380418
 H     -2.8895323384      6.4100597907      4.5243097847
 C     -4.4027938425      9.6507272751      1.5019046197
 O     -5.2670483253      7.4608928891      0.3639128304
 H      4.6478408459      5.9278447436     10.1536247053
 H     -0.2468914995      3.9620477167      0.3261771152
 C     -0.3406055583      3.2769771170      2.8005338674
 C     -0.6319080041      3.4156680596      5.1387623140
 C      0.2655341012      3.3309501693      4.0316997288
 C      3.3138377498      7.0561498527      3.4263716239
 C      2.8398110052      6.9099025353      5.7111070392
 C      2.3125176206      5.6743471559      5.5093588085
 C      2.2176870146      5.0825541155      4.2733510889
 C      2.9698133267      5.5976100801      3.2680353290
 C      1.7138693313      3.5731172269      4.3408548956
 O      3.1345161270      4.8273001688      2.2248401851
 O      1.7579186993      6.3177105526      0.4253902205
 O      0.3942808637      3.2701641337      1.6534464115
 H      2.4102904362      2.8816082154      3.8833822863
 H      1.9142432156      3.2156041547      5.3823406253
 H      1.8374358348      5.0820718065      6.3134281339
 H      4.2114337152      7.0656410878      1.5755456773
 H     -0.1480793841      3.5577350202      6.1114529861
 H      1.1185004097      5.9955693481     -0.2708505563
 H      3.0916019716      5.2753249016      1.3699149228
 H      1.3007477487      3.2661234572      1.7614108029
 H      2.4526580018      6.4295200467      8.7781941635
 O      2.7916095676      7.4882852125      6.9908148646
 C      3.2321863872      7.6897324212      4.5951897014
 C      3.3355362098      6.8265268534      8.1799142462
 H      3.9459550090      5.9426175173      7.8357149926
 N     -4.5965405523     11.0246673778      0.9467506398
 H     -5.0278501458      9.2372538992     -0.5305524075
 C     -5.3215377581      8.8685337124      0.4498202463
 H     -6.3536440086      9.0786283397      0.6740868298
 H     -4.2912597545     11.9677677071      1.3785513402
 H     -4.4144750850     11.0738362511     -0.0442152822
 C     -2.8890478474      7.4646671878     -0.4018311990
 C     -0.4466374574      7.4136216516     -1.0224136265
 H     -0.8533298298      8.0915031950     -1.7828019184
 H     -2.7918350029      8.4813996941     -0.6032094336
 H     -0.1362463711     14.0507722243      0.5333801895
 H     -0.6634160585     10.0559611654     -0.2682106740
 H      2.3025962596     14.8548122224      0.5618401584
 N      1.5631825713     15.1279234614      1.1636073568
 C      0.5089209805     14.0876983154      1.4811412757
 H     -0.0241064892     14.4686012387      2.2979936130
 H      2.1058729679     15.2329160666      1.9840895391
 H      0.2447296385      6.7239341153     -1.5160285679
 H      2.1361137211     12.6178311440      1.6263752552
 N      5.1621716836      6.7400099859      9.8779256276
 H      5.9707356277      6.4800758140      9.3476373380
 H      3.6450123227      8.2206898079      9.9120175216
 C      4.1985687532      7.6617964558      9.2008737958
 H      4.8406150758      8.3477517580      8.6984137802
 H      0.9326625050     12.6592963751      2.9753330471
 C      1.0696861500     12.7001247719      1.8615906517
 C      0.3101870168      8.2142414581      0.0744636181
 C      0.0735216734      9.5167638689      0.2529498896
 C      0.8814574079     10.2658319413      1.2099000417
 C      1.9911798817      9.7255883793      1.7827373652
 C      2.3195988392      8.3680418585      1.3879334676
 C      1.4400673070      7.6388046635      0.6688443872
 C      3.5862527666      7.7746826542      2.1033390518
 H      3.3469011556      8.7456245215      4.6551791850
 H      4.2677624371      8.5095197690      2.3593487524
 H      2.7469517762     10.3094114587      2.2772049336
 O      0.4290267555     11.5983459995      1.2288979793
95
# ORCA AIMD Position Step 505, t=505.00 fs, E_Pot=-2377.43937782 Hartree, Unit is Angstrom
 C     -0.4213420307      7.8921081530      3.3822648304
 O     -0.7406936146      8.8399292588      4.0130434743
 O     -0.1405877282      6.9341261177      2.8085651859
 C     -1.7804944309      3.4330335190      2.7059135613
 C     -2.4908288255      3.4772514048      3.8548335405
 C     -1.9746978221      3.5602308598      5.1513055658
 C     -2.6418870920      3.5044414348      1.4498909806
 C     -2.6913816044      4.9087258526      0.5956337488
 C     -3.9221242063      5.5969993310      0.6580963843
 C     -4.0377114473      6.9084227397      0.2323007540
 C     -1.7319037047      6.7446356475     -0.5360815758
 C     -1.6536813366      5.3781536161     -0.0926807570
 H     -4.5221983833      5.1315219445      1.3980450605
 H     -2.2084195453      2.6920399969      0.8884224078
 H     -3.6387884278      3.2232269552      1.7323612911
 H     -3.4980647985      3.6613123317      3.6217221161
 O     -2.7737904484      3.8282371229      6.1997741283
 C     -3.5350311123      5.0339700855      5.9752665105
 C     -2.7209691751      6.2851457835      5.6236012616
 N     -2.9216410116      7.4861736808      6.4437173286
 H     -4.1447422853      5.2724741831      6.8548596997
 H     -4.3590499677      4.6609666806      5.2944306688
 H     -2.8348602790      7.3603762552      7.4182314905
 H     -4.9359665750      9.7192729531      2.3647232226
 H     -3.4831162875      9.2492475476      1.5073467225
 O     -0.3710707610      4.7843969477     -0.2342545505
 H     -3.8279458888      7.9293573092      6.3254887421
 H     -1.6442278355      6.0079847384      5.5829233168
 H     -3.1631718715      6.5417035479      4.6664069574
 C     -4.4485059862      9.7239957079      1.4526738158
 O     -5.3316000882      7.4745980302      0.3826755554
 H      4.7384018493      5.8559492377     10.0438569799
 H     -0.1487201744      3.9646090239      0.2779761077
 C     -0.3953948100      3.2880319428      2.8069307726
 C     -0.6259537467      3.4556637094      5.2679192158
 C      0.1753498956      3.3211663463      4.0576209556
 C      3.2929355955      6.9818645634      3.3702478094
 C      2.8086775139      6.9351470315      5.7211038150
 C      2.2781745445      5.6792084312      5.5495608930
 C      2.2305452023      5.1039602731      4.3462902363
 C      2.9638385827      5.6584115497      3.3525118225
 C      1.7424114425      3.5917444586      4.3769788990
 O      3.1306448133      4.8187012999      2.2585618333
 O      1.7099367111      6.3488872649      0.4852944979
 O      0.3769818405      3.3107598773      1.6483599430
 H      2.3925926723      2.9317445711      3.7868907574
 H      1.7254476743      3.2046318329      5.3648018894
 H      1.7521449568      5.2384757955      6.3985563648
 H      4.0946177251      7.1611970178      1.4237827978
 H     -0.0404162223      3.6505154623      6.1168017565
 H      1.0712393462      5.9456942022     -0.1679178547
 H      3.1490729401      5.4580892538      1.5141765008
 H      1.4182372004      3.2941267902      1.8313068704
 H      2.5931608331      6.4858121927      8.8255734237
 O      2.7829963828      7.4970272483      6.9938828242
 C      3.2821431136      7.6678075234      4.6186756561
 C      3.3624941672      6.8161675864      8.1649392246
 H      4.0052426018      5.9785084213      8.0040252275
 N     -4.6053620065     11.0492169496      0.9152835697
 H     -4.9797501326      9.3161341619     -0.5181250019
 C     -5.2872403454      8.8656276721      0.4292499748
 H     -6.3472866091      9.0877163612      0.6313099598
 H     -4.2803663477     11.8205243648      1.4291434605
 H     -4.5569175147     11.0156036959     -0.0761237179
 C     -2.8843292736      7.4993286305     -0.3294228751
 C     -0.4505776766      7.4099267890     -1.0276793849
 H     -0.6988407537      8.0660219888     -1.8586523973
 H     -2.8799124251      8.5763347453     -0.5899957879
 H      0.0002445365     14.0436101076      0.5325212956
 H     -0.5189224291     10.1288149021     -0.4876161517
 H      2.2895811922     14.9061757405      0.4181992778
 N      1.5560842554     15.1673534502      1.1220908711
 C      0.5403494734     14.1328988386      1.4155438579
 H     -0.1631944868     14.5619958914      2.1913920132
 H      1.9212731271     15.5219650099      2.0448519815
 H      0.2041957890      6.6210831913     -1.3371740007
 H      2.1658931898     12.7881257858      1.7055693773
 N      5.1692711395      6.7569688690      9.8794396569
 H      5.8811321354      6.5196206146      9.1690169705
 H      3.6060435413      8.3409653521      9.9170885655
 C      4.2348769691      7.7075016732      9.2367291936
 H      4.7276682196      8.4589367953      8.5684331546
 H      0.9127943786     12.6428954181      3.0217084135
 C      1.0974658764     12.7313226832      1.9194170575
 C      0.3118215744      8.2772807392      0.0855338369
 C      0.1101454590      9.5913901890      0.2614113900
 C      0.8152430489     10.3373121409      1.2836487970
 C      1.9645617037      9.7548720317      1.8462583089
 C      2.2681345284      8.4000311535      1.4526441275
 C      1.4294033502      7.6427708798      0.7286206025
 C      3.5055997373      7.7800564504      2.0939683719
 H      3.4107056154      8.7390917115      4.7714507888
 H      4.2621074913      8.5501651527      2.4409034042
 H      2.5261735650     10.3905079280      2.5312695322
 O      0.4798565627     11.6251248233      1.2482866365
95
# ORCA AIMD Position Step 510, t=510.00 fs, E_Pot=-2377.45185913 Hartree, Unit is Angstrom
 C     -0.4362587604      7.9716817794      3.4024464746
 O     -0.7982386433      8.9048630205      4.0517334011
 O     -0.1288065850      6.9137782190      2.7887931892
 C     -1.7712500151      3.4831778588      2.7527123057
 C     -2.5213504936      3.4959504172      3.8595830222
 C     -2.0062154013      3.6143745327      5.1735854696
 C     -2.6254858435      3.5771415783      1.4382620358
 C     -2.6861475561      4.9358664871      0.6288571303
 C     -3.8914388698      5.6522248816      0.7648767775
 C     -4.1217805744      6.8661131139      0.2501834242
 C     -1.7185817798      6.7817849132     -0.5071811027
 C     -1.6459790442      5.4743307747     -0.0885650950
 H     -4.6957140904      5.2788370763      1.4061086726
 H     -2.1702897594      2.7957054351      0.8066176198
 H     -3.6569074817      3.2890029673      1.6272904060
 H     -3.6006365924      3.6680354012      3.6921377434
 O     -2.7363711695      3.8952215714      6.2579061560
 C     -3.6142044120      5.0449069713      6.0612012132
 C     -2.7694429521      6.3344909701      5.6171303298
 N     -2.9503810831      7.4820454398      6.4379792179
 H     -4.1461773772      5.1511480264      7.0118910021
 H     -4.3323402197      4.8779994745      5.2842754630
 H     -2.8434915098      7.2422767612      7.4293687955
 H     -4.9099634827      9.7978577598      2.4751929879
 H     -3.4964086648      9.3537899490      1.5454656826
 O     -0.3493232841      4.8323809386     -0.2323238532
 H     -3.8374451609      7.8909611779      6.1925187879
 H     -1.7418572611      5.9846163200      5.5410118474
 H     -3.1638504793      6.7375366399      4.6859161082
 C     -4.5101547830      9.7700509903      1.3990514156
 O     -5.3431085804      7.4762799022      0.4070975371
 H      4.7254754134      5.8384085286     10.0515887295
 H     -0.2068477833      4.0614734050      0.3453656767
 C     -0.4200956003      3.3151426167      2.8006870405
 C     -0.5737489776      3.4968540761      5.3456239956
 C      0.1099633966      3.3429648477      4.1258581049
 C      3.2668177365      6.9553283400      3.3391389579
 C      2.7974025551      6.9770993835      5.7592315838
 C      2.2128589989      5.7045995699      5.6349380804
 C      2.2481106884      5.0343555073      4.4503046762
 C      2.9328653416      5.6795004594      3.3884030713
 C      1.7358188873      3.6007028243      4.3876343992
 O      3.1287267803      4.8321008807      2.2852708643
 O      1.6733306879      6.3715205046      0.5432106381
 O      0.3683716740      3.3373524328      1.6536267853
 H      2.3453317368      3.0833863988      3.6582381554
 H      1.7640540465      3.2792819445      5.4384718555
 H      1.7447736537      5.3503090878      6.5025011871
 H      3.8620725356      7.2990828274      1.1687710323
 H     -0.0258298407      3.6930903440      6.3056916517
 H      1.0249775862      5.8057674719      0.1152102408
 H      3.1718465408      5.4527631805      1.4906891941
 H      1.2931778137      3.4091093820      1.9404894351
 H      2.5308786726      6.4042679606      8.7728597204
 O      2.7919578524      7.5102629952      7.0158972494
 C      3.3025847555      7.6230090931      4.6384732333
 C      3.3735357049      6.8308603277      8.1649402157
 H      4.0524939693      5.9692955158      7.9157931063
 N     -4.6136877827     11.0671429353      0.8786752805
 H     -5.0231939510      9.2655821920     -0.6012064230
 C     -5.2914527391      8.8947593219      0.4041065272
 H     -6.3206758507      9.2542112691      0.4986985652
 H     -4.1922208999     11.7541901811      1.4484088966
 H     -4.6143085653     11.2070880730     -0.1374187582
 C     -2.8781318977      7.5342807809     -0.2683166825
 C     -0.4482409858      7.4339765754     -1.0169140254
 H     -0.4948120995      8.0334669286     -1.9202971693
 H     -2.9572790915      8.5470300973     -0.5914228363
 H     -0.0090335684     13.8765906125      0.4069419826
 H     -0.4130247906     10.1894742421     -0.4687380946
 H      2.1869061126     14.9600449157      0.4000028400
 N      1.5496045517     15.2009973020      1.1072112232
 C      0.5683772861     14.1905598015      1.3498153626
 H     -0.2229838956     14.5833598841      1.9683158569
 H      1.8128541513     15.8247624121      1.8425677755
 H      0.1646199733      6.5787247787     -1.3111940253
 H      2.2314760979     12.8356696257      1.8512754145
 N      5.1836210157      6.7794337862      9.8687582651
 H      5.8355588976      6.6452638604      9.0967691909
 H      3.5845752221      8.2374997288      9.9157879593
 C      4.2611167813      7.7575951890      9.2208721794
 H      4.7481279677      8.5191061659      8.5902362890
 H      0.9751202225     12.6199372655      3.0389616985
 C      1.1291538783     12.7518483904      1.9778650827
 C      0.3135711474      8.2987009655      0.0638789939
 C      0.1387379718      9.6814857700      0.2751452031
 C      0.7845178948     10.3852035226      1.3173379762
 C      1.9011889350      9.7823120995      1.8914527658
 C      2.2386515400      8.4626313827      1.5805027050
 C      1.3945925856      7.6552242297      0.7627815508
 C      3.4816584003      7.7878777810      2.0926696493
 H      3.6108002091      8.6699440144      4.7846766496
 H      4.0725357158      8.6248986603      2.3380364343
 H      2.3706319792     10.2925504581      2.7352000347
 O      0.5161453512     11.6901733877      1.2726085474
95
# ORCA AIMD Position Step 515, t=515.00 fs, E_Pot=-2377.45263608 Hartree, Unit is Angstrom
 C     -0.4451160170      7.9868596930      3.4023292912
 O     -0.8398853596      8.9396061362      4.0639489298
 O     -0.1415699249      6.9690758885      2.8158685486
 C     -1.7969361877      3.5284391471      2.7381625914
 C     -2.5836832201      3.5444110716      3.9270726048
 C     -1.9842534627      3.6455969858      5.1784195192
 C     -2.5773689325      3.6416533925      1.3973376428
 C     -2.6943260071      4.9371531007      0.6967236171
 C     -3.8709729691      5.6685680374      0.8958211611
 C     -4.1307867787      6.8798142248      0.2488326994
 C     -1.7361981048      6.8737067475     -0.4712971181
 C     -1.5762635932      5.5265535200     -0.0662158688
 H     -4.8214459578      5.3180275197      1.3016317997
 H     -2.2303120222      2.9515021963      0.6507103400
 H     -3.6113988165      3.3505618987      1.5768282393
 H     -3.6282528924      3.6120065730      3.8741991432
 O     -2.7258520684      3.9789351508      6.3227745094
 C     -3.6815630862      5.0465070981      6.1477941874
 C     -2.8332535882      6.3662564062      5.5976484107
 N     -2.9757648353      7.4878357931      6.4549333405
 H     -4.1165681680      5.1205820015      7.1522259483
 H     -4.3781210649      4.9743215113      5.2802073396
 H     -2.9038504306      7.2502170620      7.4488718027
 H     -4.9425037571      9.7581288316      2.3651551021
 H     -3.4834806976      9.5391637921      1.5038140346
 O     -0.3680667572      4.9021137304     -0.2395762711
 H     -3.8512407865      7.9464469987      6.2264493355
 H     -1.8025335858      6.0672222696      5.4709649588
 H     -3.0293233521      6.6863160453      4.5546093242
 C     -4.5507810159      9.7721065761      1.3861279742
 O     -5.3335882267      7.4835720390      0.4401521779
 H      4.7091938402      6.0122810131     10.0721493529
 H     -0.3388686468      4.1757442900      0.4644735811
 C     -0.4210794083      3.3596908073      2.8292504846
 C     -0.5635342667      3.5427248873      5.3680047458
 C      0.1309102434      3.3998542323      4.2047999471
 C      3.2507019473      6.9939204986      3.3668734852
 C      2.7991466364      7.0063743413      5.7961528953
 C      2.1448920745      5.7353969097      5.7148914449
 C      2.2708576900      4.9721840668      4.5680645065
 C      2.8731678774      5.6140987978      3.3802152736
 C      1.6813701046      3.5944921322      4.3942051536
 O      3.1206874151      4.8617639063      2.3094043531
 O      1.6620542369      6.3822351117      0.6060132354
 O      0.3559249230      3.3540327412      1.6832799650
 H      2.3054421994      3.1119458564      3.6475990614
 H      2.0295987803      3.1799035978      5.3451268403
 H      1.6930669855      5.3269264385      6.6832691404
 H      3.7454353588      7.3639253353      1.1589958002
 H     -0.1755087884      3.6495118476      6.3373320245
 H      0.8637219762      5.7419420866      0.4642846143
 H      3.1446938917      5.2784876334      1.4580680846
 H      1.2599886110      3.5611708520      1.9528821463
 H      2.5390758258      6.3347337729      8.6354468496
 O      2.8157787175      7.5433345197      7.0577948312
 C      3.3062689748      7.5793026962      4.6489830994
 C      3.3762295924      6.8515900838      8.1723869007
 H      3.9861887489      6.0934944898      7.7063324923
 N     -4.6272450875     11.1169732134      0.8350876110
 H     -4.9954631048      9.1346085588     -0.6566907059
 C     -5.3405101389      8.9356633543      0.3525208305
 H     -6.3543326972      9.3306355643      0.3852065833
 H     -4.0464953030     11.8137845691      1.4070730125
 H     -4.5844257582     11.4091081297     -0.1134513840
 C     -2.9171752014      7.5325762487     -0.2238845814
 C     -0.4176994477      7.4748482433     -1.0036406291
 H     -0.4930424176      8.0293978327     -1.9495358982
 H     -2.9571101490      8.5508224630     -0.5827584618
 H      0.1929079715     13.7683433278      0.3949261003
 H     -0.4857605517     10.3469858468     -0.3607650886
 H      2.2329015925     15.0852328539      0.3834424906
 N      1.5370211560     15.2341307060      1.0869373887
 C      0.5712564185     14.2064022476      1.2888105363
 H     -0.2698360276     14.6016915432      1.8706014059
 H      1.7545910536     16.0385582237      1.6224319137
 H      0.1937098375      6.6434533910     -1.2869615774
 H      2.2486933605     12.7358808535      1.9402814297
 N      5.2023430479      6.8160608071      9.8397065932
 H      5.9495509937      6.6250920432      9.1902494283
 H      3.5717019557      8.1594177534      9.9432204824
 C      4.2499384051      7.7706595256      9.1729239808
 H      4.8704845501      8.5495493406      8.7230608615
 H      0.9588558566     12.6780781483      3.1581979090
 C      1.1700512116     12.7953161051      2.0241437276
 C      0.3347526698      8.3163488355      0.0468384430
 C      0.1610947680      9.7304098933      0.2824114358
 C      0.7831688615     10.4152269369      1.2990708076
 C      1.8237192631      9.7946888572      1.9646193952
 C      2.1667090018      8.5050235732      1.7005249890
 C      1.3361242783      7.7151636880      0.7831449439
 C      3.4723760408      7.8110027237      2.0790723919
 H      3.8232167397      8.5052428003      4.6926845828
 H      4.1348184398      8.6780203739      2.2702803982
 H      2.3545323309     10.2005868625      2.7860799074
 O      0.5368916616     11.7864144830      1.2985265066
95
# ORCA AIMD Position Step 520, t=520.00 fs, E_Pot=-2377.45108143 Hartree, Unit is Angstrom
 C     -0.4735021904      8.0047536042      3.4248511341
 O     -0.8567480415      8.9262362954      4.0370880890
 O     -0.1690393564      7.0664434325      2.8704088092
 C     -1.8358929635      3.5592652776      2.7193484614
 C     -2.6166155733      3.6070328201      4.0008912585
 C     -1.9717098176      3.6799899748      5.2035958666
 C     -2.5323636676      3.6607575872      1.3567639850
 C     -2.6681794836      5.0011290506      0.7520414980
 C     -3.8741933868      5.6760020890      0.9840752644
 C     -4.0606473663      6.9237273761      0.2720723697
 C     -1.7343062444      6.9394939752     -0.4228351667
 C     -1.5680635342      5.5839919994     -0.0072685027
 H     -4.7435102970      5.1696410890      1.3606625285
 H     -2.1825516624      2.9813010827      0.5656688086
 H     -3.5219051123      3.3462890966      1.6052048421
 H     -3.7287960004      3.5847646465      3.9974046061
 O     -2.7216051014      4.0526841672      6.3692801000
 C     -3.7048930250      5.0691970612      6.1914967461
 C     -2.8914347894      6.3648599715      5.5781312571
 N     -3.0083404007      7.5183922485      6.4803781465
 H     -4.1578998154      5.2551141623      7.1738976538
 H     -4.5369181791      4.7771453506      5.5237172115
 H     -2.9640616675      7.3024992885      7.4392358822
 H     -5.1223710084      9.6929371239      2.3312766244
 H     -3.5164731491      9.5076717208      1.4154889414
 O     -0.4058457097      4.9629731985     -0.2336920950
 H     -3.8419524611      8.0858691460      6.3975604103
 H     -1.7999397053      6.1088582532      5.5713281406
 H     -3.1178802521      6.5144271929      4.5328698322
 C     -4.5619711258      9.7835774128      1.3481098124
 O     -5.3264844752      7.5078881163      0.4796347081
 H      4.7094727100      6.0345236936     10.1594442778
 H     -0.2954696137      4.2435487042      0.4193881967
 C     -0.4359332728      3.4255326099      2.9110414129
 C     -0.6086352460      3.5867245832      5.3461446154
 C      0.2097424809      3.4757919092      4.2516891637
 C      3.2245835982      6.9877765061      3.4179914740
 C      2.7854992176      6.9946189786      5.8447763740
 C      2.0989537713      5.7571092124      5.7898627323
 C      2.2861689848      4.9719625590      4.6374703483
 C      2.8063663079      5.5807535504      3.4006154573
 C      1.6546200104      3.5567172745      4.4183513310
 O      3.1044901627      4.8557765314      2.3215519722
 O      1.6540560587      6.3968145174      0.6750547335
 O      0.3432088103      3.3652405252      1.7351242763
 H      2.1698306384      3.0880040138      3.5855671304
 H      2.0763552526      2.8909358585      5.1740075809
 H      1.6801470638      5.3491344208      6.6226138304
 H      3.7818688346      7.2115808110      1.2415512179
 H     -0.2280499264      3.6144364440      6.3909761933
 H      0.8181376125      5.9314783478      0.7475828575
 H      3.0523766979      5.2829599981      1.4283239366
 H      1.3234414499      3.7583822050      1.8553818986
 H      2.6073781071      6.3020357602      8.6890760348
 O      2.8413910962      7.6151013826      7.0946232549
 C      3.3147291295      7.5576738818      4.6554510514
 C      3.3822348277      6.8784220718      8.1435954234
 H      4.0475693485      6.1451875393      7.6434361921
 N     -4.6366194436     11.2092813725      0.8219630349
 H     -4.9032656682      9.1256329606     -0.7003507393
 C     -5.3939560378      8.9473313902      0.2825979192
 H     -6.4622577815      9.2614616320      0.3049955328
 H     -4.0354879741     11.7861407960      1.2968815751
 H     -4.5479295601     11.3355839609     -0.1774069969
 C     -2.9926503515      7.5364176028     -0.2123321635
 C     -0.3906229061      7.5351152951     -0.9994033022
 H     -0.6391538225      8.0974589127     -1.8781654800
 H     -2.9811050522      8.5745638382     -0.5338063829
 H      0.3573801311     13.7518403757      0.2660600998
 H     -0.5890033191     10.3804741836     -0.1995350247
 H      2.2915373529     15.1683172704      0.3442591579
 N      1.5404445165     15.2706535747      1.0462492672
 C      0.5943626878     14.1851861988      1.2723691243
 H     -0.3245348694     14.5615926203      1.7938834944
 H      1.5134708223     16.1868968840      1.5488632569
 H      0.2759657674      6.6907367007     -1.2258629449
 H      2.3014039194     12.6925947482      1.9604007653
 N      5.2167283073      6.8756509302      9.8032343875
 H      6.0757519465      6.5186561089      9.3423146009
 H      3.5949341211      8.1675729449      9.9274819517
 C      4.2326814927      7.7390145820      9.1303237530
 H      4.8589867179      8.6074359514      8.7766486929
 H      0.9181071178     12.8467821044      3.0903130753
 C      1.2025320564     12.8616992714      2.0813903668
 C      0.3605179409      8.3675575509      0.0392369511
 C      0.1564565028      9.7534561214      0.2702043285
 C      0.7928742707     10.4813340752      1.2546563685
 C      1.7635933202      9.7883000487      2.0731249639
 C      2.0595763395      8.5050411136      1.7678959124
 C      1.2970699765      7.7769217056      0.8128647135
 C      3.4544142844      7.8677531753      2.0958191016
 H      3.9853659727      8.4485816094      4.6664362742
 H      4.3042337958      8.5541132852      2.2436052878
 H      2.4206077205     10.3309151644      2.7901836824
 O      0.5389338266     11.8596520176      1.3162975581
95
# ORCA AIMD Position Step 525, t=525.00 fs, E_Pot=-2377.43229553 Hartree, Unit is Angstrom
 C     -0.5216546909      8.0505506878      3.4755282493
 O     -0.8756994393      8.9305496600      4.0161218439
 O     -0.1848864946      7.1207875170      2.9031763917
 C     -1.8546818944      3.5789091134      2.7731980616
 C     -2.6281197664      3.6658281472      4.0095387183
 C     -2.0187293701      3.7393913816      5.2540641940
 C     -2.4981628995      3.6362382715      1.3318264570
 C     -2.6376450548      5.1080283456      0.8025246203
 C     -3.8588514722      5.6869567709      1.0032305283
 C     -4.0401957754      6.9470993081      0.3741905203
 C     -1.7046311651      6.9516726762     -0.3599532989
 C     -1.6238972300      5.6848243263      0.0716573487
 H     -4.5864391939      5.0574919721      1.5521528808
 H     -2.0207487874      2.9563729434      0.6393118443
 H     -3.5158485246      3.2684749388      1.5573644672
 H     -3.6870876007      3.6492778357      4.0250334095
 O     -2.7075728921      4.1000146763      6.4029487986
 C     -3.7067097405      5.1018481694      6.2059914265
 C     -2.9498255659      6.3467282938      5.5954716725
 N     -3.0519409095      7.5664019698      6.4954761198
 H     -4.1103010155      5.4481448112      7.1654146680
 H     -4.5976230167      4.5890189046      5.7891516774
 H     -2.8961312469      7.2341378867      7.4762211729
 H     -5.1370573390      9.6799218341      2.2042107503
 H     -3.6096144619      9.3219975492      1.3891173660
 O     -0.4417087455      5.0089989914     -0.2194515713
 H     -3.8398038736      8.2032303343      6.4288090763
 H     -1.9315006585      6.0830849617      5.6936271727
 H     -3.3464429303      6.4772892571      4.5654172203
 C     -4.5981543215      9.8276015889      1.2846166515
 O     -5.3072755913      7.5403779334      0.5157811677
 H      4.8222808645      6.1371353557     10.3100796398
 H     -0.1766544144      4.2132196906      0.3104070390
 C     -0.4474339279      3.5127352226      3.0000008851
 C     -0.6331365555      3.6271514907      5.3319320818
 C      0.2255133210      3.5545800570      4.2632613441
 C      3.1850493749      6.9402146993      3.4540370390
 C      2.7567601888      6.9743676185      5.8992594234
 C      2.0996186223      5.7765138913      5.8235757034
 C      2.2772958806      4.9936744022      4.6393717183
 C      2.7498453860      5.6009395561      3.4700782002