95
# ORCA AIMD Position Step 0, t=0.00 fs, E_Pot=-2377.77312593 Hartree, Unit is Angstrom
 C      0.6349088028      4.4189455198      1.2531892056
 O      0.1241404006      4.9620756222      2.1576441097
 O      1.1432776051      3.8779905174      0.3535120016
 C     -0.3448398015      0.8773550039      0.1484643007
 C     -1.0373599046      0.7945536036      1.3602440061
 C     -0.3513624016      0.7083500032      2.5738285115
 C     -1.1066526050      1.0761843048     -1.1496903051
 C     -1.3823100062      2.5458743114     -1.4126994063
 C     -2.5089642112      3.1437604141     -0.8389557038
 C     -2.7471413123      4.5112794202     -0.9679539043
 C     -0.7285772033      4.7311464212     -2.3051769103
 C     -0.4878536022      3.3579627150     -2.1310462095
 H     -3.2161396144      2.5414202114     -0.2660681012
 H     -0.5636965025      0.6213051028     -1.9900901089
 H     -2.0696022093      0.5518673025     -1.0741274048
 H     -2.1291415095      0.8015233036      1.3630049061
 O     -1.0323898046      0.6222569028      3.7759366169
 C     -1.6181549072      1.8653577084      4.2166275189
 C     -0.5632473025      2.8610873128      4.7085136211
 N     -1.0909446049      4.1414337185      5.1781385232
 H     -2.3044959103      1.5909515071      5.0315874225
 H     -2.2141312099      2.3184896104      3.4030962152
 H     -1.6329527073      4.0095811180      6.0346023270
 H     -4.0449170181      4.2754807191      2.1859474098
 H     -2.3435858105      4.4014125197      1.7357262078
 O      0.6689426030      2.8349460127     -2.6817286120
 H     -1.7311324078      4.5796671205      4.4908766201
 H      0.0184423001      2.3898023107      5.5172400247
 H      0.1447207006      3.0550247137      3.8881074174
 C     -3.2328904145      4.9958215224      1.9956647089
 O     -3.8764007174      5.0627451227     -0.3877888017
 H      0.4121762018      5.6141487251      5.0779081227
 H      0.9711930043      2.0495685092     -2.1347959096
 C      1.0599477047      0.8714850039      0.1719153008
 C      1.0420661047      0.6657375030      2.5714599115
 C      1.7688008079      0.7473704033      1.3793252062
 C      4.4339270199      4.4107835198      0.7293294033
 C      4.2163383189      4.1023597184      3.1336857140
 C      3.8641986173      2.7660338124      2.9309584131
 C      3.7715727169      2.2358760100      1.6405963073
 C      4.0413017181      3.0736875138      0.5454871024
 C      3.2846252147      0.8123555036      1.4371530064
 O      3.8940896174      2.5390707114     -0.7223902032
 O      2.8397102127      4.3674896196     -2.3676544106
 O      1.7219977077      1.0058875045     -1.0358362046
 H      3.7318531167      0.3761431017      0.5328799024
 H      3.6250320162      0.2013403009      2.2849031102
 H      3.6550197164      2.1320541095      3.7948704170
 H      5.0658448227      4.8163787216     -1.3062818059
 H      1.5644580070      0.5805611026      3.5258752158
 H      2.0056572090      3.8676873173     -2.6163987117
 H      3.6430003163      3.2698515146     -1.3628537061
 H      2.6079418117      1.4510333065     -0.8804311039
 H      2.3891144107      4.0069626179      4.9764008223
 O      4.3133538193      4.6301728207      4.4096886197
 C      4.5162451202      4.9059968220      2.0346982091
 C      3.0425496136      4.8964396219      5.0398017226
 H      3.2752795147      5.0753068227      6.1001636273
 N     -2.9516799132      5.7392253257      3.2232357144
 H     -2.8113508126      6.5917362295      0.5821728026
 C     -3.6119924162      5.8575105262      0.7875070035
 H     -4.5428923203      6.4113088287      0.9803768044
 H     -3.8048940170      6.1770029277      3.5768456160
 H     -2.2706259102      6.5057067291      3.0722033138
 C     -1.8649837084      5.2938973237     -1.7164279077
 C      0.2714254012      5.6169891252     -3.0264389136
 H     -0.2738036012      6.4423117289     -3.5053292157
 H     -2.0676756093      6.3598877285     -1.8374569082
 H     -1.0509495047      8.8893113398      1.1616385052
 H      0.0343566002      7.9076925354     -1.5863250071
 H     -1.0008538045      8.9319499400      3.5288059158
 N     -0.8187968037      8.0377975360      3.0683291137
 C     -0.3316561015      8.2571966370      1.7069597076
 H     -0.3085467014      7.2888306326      1.1839786053
 H     -0.1265576006      7.5407112338      3.6580856164
 H      0.7718348035      5.0594441227     -3.8306551172
 H      1.0559164047      9.9017973443      2.0544383092
 N      1.0405817047      6.4367026288      5.0255784225
 H      1.1656730052      6.7661090303      5.9850379268
 H      2.1857428098      5.9219570265      3.3535285150
 C      2.3344864105      6.1089273274      4.4281087198
 H      3.0007848134      6.9834948313      4.5031296202
 H      1.7938323080      8.2787533371      2.1581568097
 C      1.0574988047      8.8951248398      1.6104180072
 C      1.2851663058      6.2092122278     -2.0638627092
 C      0.9704321043      7.3867350331     -1.3780498062
 C      1.8260532082      7.9111509354     -0.4103431018
 C      3.0388583136      7.2703761326     -0.1467933007
 C      3.3876638152      6.0917228273     -0.8129625036
 C      2.4936915112      5.5602605249     -1.7575733079
 C      4.6609386209      5.3549239240     -0.4379127020
 H      4.8071656215      5.9433375266      2.2089372099
 H      5.4188017243      6.0939591273     -0.1423454006
 H      3.7187430167      7.6973561345      0.5931214027
 O      1.4791910066      9.0813167407      0.2427093011
95
# ORCA AIMD Position Step 5, t=5.00 fs, E_Pot=-2377.56741663 Hartree, Unit is Angstrom
 C      0.6704269792      4.4437058710      1.3045761839
 O      0.1198997573      5.0601042922      2.2463239526
 O      1.1868327834      3.8937847017      0.3709573470
 C     -0.2865198449      0.8331628829      0.1984477998
 C     -1.0745736522      0.8488010586      1.3462761110
 C     -0.3947883134      0.7642682535      2.5620802568
 C     -1.0941431519      1.0486179766     -1.1555788570
 C     -1.3501297872      2.5400788254     -1.4076192469
 C     -2.5530512374      3.1599465621     -0.8359122691
 C     -2.7459662210      4.4465888844     -0.9797203536
 C     -0.7193820963      4.7358648951     -2.3388090111
 C     -0.4799097596      3.3364156116     -2.1074525459
 H     -3.0611296738      2.4527214140     -0.1861781795
 H     -0.7382415494      0.5913543494     -2.0769318073
 H     -2.0233144216      0.5756242408     -0.9241278922
 H     -2.1635807416      0.7215303381      1.3407069395
 O     -1.0274604363      0.6317674813      3.7869443282
 C     -1.6579102807      1.9006826147      4.1656279330
 C     -0.5740465178      2.9501226686      4.7796069003
 N     -1.0848915634      4.1617038456      5.1709386968
 H     -2.4008249667      1.5408759105      4.8656883683
 H     -2.3189286280      2.3132134893      3.4009392042
 H     -1.5717132334      4.1489878472      6.0576696389
 H     -3.9918266659      4.3750449472      2.3226377854
 H     -2.4171830362      4.3966669037      1.7355470190
 O      0.6768461798      2.9419975261     -2.6595013868
 H     -1.7295040916      4.5313876880      4.4983574371
 H     -0.0370771507      2.4270605832      5.5382687742
 H      0.0236243563      3.1384317305      3.8919450812
 C     -3.1991767634      5.0489866649      2.0335068029
 O     -3.9125680048      5.0803505857     -0.3714115974
 H      0.3423213418      5.6936204438      4.9664492086
 H      1.1200667980      2.0900908327     -2.3262747160
 C      1.0520053048      0.9706364249      0.2242860907
 C      1.0564014397      0.6629805463      2.6242897620
 C      1.7289824245      0.7474197265      1.4471618921
 C      4.3898480586      4.4004866275      0.6774152401
 C      4.1815654758      4.0923597036      3.1126165911
 C      3.9234042352      2.7439043710      2.9485539175
 C      3.8017193560      2.2505599745      1.6776635379
 C      3.9614253266      3.0721079751      0.5832673795
 C      3.2695855937      0.7918688594      1.4514643399
 O      3.8469730510      2.5383325972     -0.7007357009
 O      2.7468684746      4.4076313682     -2.3519851482
 O      1.7286459014      1.0418183625     -1.0122435192
 H      3.6145514376      0.4200316190      0.4953974859
 H      3.6869968981      0.1576716938      2.2007686563
 H      3.6916867466      2.0653525677      3.7218011094
 H      5.1331584693      4.7657581644     -1.2512416210
 H      1.6119107718      0.4329130449      3.5235045019
 H      2.0198968346      3.8266835956     -2.6001918571
 H      3.6779600188      3.1715494748     -1.4512117650
 H      2.6413321730      1.4194842254     -0.8296326231
 H      2.4434151772      4.0246446947      4.9582054975
 O      4.2851057483      4.6215197656      4.4006065321
 C      4.5254301339      4.9046309516      1.9846169126
 C      3.0062860835      4.9394361695      5.0424137525
 H      3.2268570297      5.1982740202      6.0861544347
 N     -2.9258504757      5.7665935630      3.1954912793
 H     -2.8934688525      6.6197578977      0.6480066321
 C     -3.6016425738      5.8172920245      0.7955812538
 H     -4.5147179197      6.3214118334      1.0930477758
 H     -3.8035633256      6.2165496091      3.5328442453
 H     -2.2417038612      6.4412798796      2.9538306244
 C     -1.8599091679      5.2980291900     -1.7301175835
 C      0.3025159135      5.6517306183     -3.1442266108
 H     -0.1686032446      6.4722175991     -3.6338581717
 H     -2.1159255008      6.3248419776     -1.8037590630
 H     -1.0267379510      8.8009566607      1.0597132362
 H      0.0967266594      7.9103907542     -1.6043984181
 H     -1.0911457493      8.8767170478      3.4915743258
 N     -0.7268152443      8.0595480257      3.0738344931
 C     -0.3663036977      8.2419052521      1.7026090561
 H     -0.3000256028      7.2555967662      1.2948727465
 H     -0.2191916093      7.3952623320      3.6113601635
 H      0.8207834546      4.9854684021     -3.8189570397
 H      1.0652411062      9.9855554583      1.9491163574
 N      1.0361186765      6.4668109644      5.0591493100
 H      1.1708364617      6.8422812022      6.0002927856
 H      2.1380966792      6.0246761634      3.4290827631
 C      2.2608581883      6.1813683728      4.5043055641
 H      3.1824224274      6.7994805561      4.5246948963
 H      1.9057275213      8.4299660387      2.1602710034
 C      1.0825565564      8.9373135478      1.6558465464
 C      1.3090836891      6.2252547580     -2.0575287564
 C      0.9853009544      7.4043498128     -1.3069196237
 C      1.8600953485      7.9669187094     -0.4319817399
 C      3.0316632856      7.2720488825     -0.1304352251
 C      3.3489246095      6.1298866588     -0.7722173747
 C      2.4054289646      5.5616520753     -1.7252089888
 C      4.6552485849      5.3059982777     -0.4686683388
 H      4.7892740240      5.9292723624      2.2818889160
 H      5.4001464532      6.0269309157     -0.2004355140
 H      3.7102073495      7.5851054319      0.6227584132
 O      1.4366654845      9.1370283918      0.2880250258
95
# ORCA AIMD Position Step 10, t=10.00 fs, E_Pot=-2377.54347823 Hartree, Unit is Angstrom
 C      0.6896094002      4.5068908063      1.3997912116
 O      0.1577935744      5.1294922829      2.2830606770
 O      1.2150044909      3.9377696972      0.4385061934
 C     -0.2745370470      0.8228328901      0.2025666479
 C     -1.0929476730      0.8870348033      1.3629050307
 C     -0.4093664939      0.8098459184      2.5666882873
 C     -1.0804461642      1.0120826640     -1.1379318676
 C     -1.3393827914      2.5508171489     -1.3890855257
 C     -2.5346277615      3.0934818379     -0.8338810479
 C     -2.7915807813      4.4580872336     -0.9812192284
 C     -0.7496090391      4.7779041911     -2.3639796802
 C     -0.4771389205      3.3381274384     -2.0839590317
 H     -3.0859073575      2.4929698959     -0.1456095918
 H     -0.7676349018      0.5164380718     -2.0480029563
 H     -2.0691980462      0.6181371440     -0.8449435587
 H     -2.1351360452      0.7511601395      1.2779538223
 O     -1.0331613371      0.6770292820      3.7880327609
 C     -1.7160939423      1.9118077820      4.1360891337
 C     -0.5901778692      2.9778864438      4.7999577808
 N     -1.1131168483      4.2435238069      5.1909061601
 H     -2.4978817627      1.5969341338      4.9001809814
 H     -2.2258255374      2.3722145457      3.2653565379
 H     -1.4606466928      4.2993799374      6.1289624565
 H     -4.0219090044      4.4013139044      2.3424049625
 H     -2.3085661481      4.3367750436      1.8056723675
 O      0.7146749048      3.0448623046     -2.6443132742
 H     -1.7133126314      4.6301487804      4.4375522449
 H     -0.0044353027      2.4610211734      5.6078052911
 H      0.0915057042      3.1750462371      3.9781541404
 C     -3.1751207669      5.0194404907      2.0574662333
 O     -3.9212079216      5.0803366780     -0.3671165936
 H      0.3110475606      5.8551083378      4.9592640255
 H      1.0367747945      2.1766869962     -2.4433409132
 C      1.0789291379      1.0558881726      0.2626736131
 C      1.0259530331      0.6566148042      2.6667785747
 C      1.7174329188      0.7742985722      1.5209799871
 C      4.3399746149      4.3885949630      0.6892932792
 C      4.1659908339      4.1004579051      3.0904348856
 C      3.9797211977      2.7229614158      2.9625264117
 C      3.8106275747      2.2317851381      1.6981252855
 C      3.8856948787      3.0798884787      0.5724681907
 C      3.2611712527      0.7810079995      1.4612624509
 O      3.7858157072      2.5259551474     -0.6654171083
 O      2.6627253339      4.4486869328     -2.3263279922
 O      1.7309198672      1.0913026344     -0.9572406229
 H      3.5459542512      0.4706934060      0.4702024962
 H      3.7208148400      0.0728478172      2.1795417024
 H      3.7650765667      2.0026356954      3.8306187762
 H      5.0285416536      4.6920110154     -1.4078085134
 H      1.5385854012      0.3481662592      3.5633979635
 H      1.8450328650      3.8582638344     -2.6191315649
 H      3.7229620037      3.1823430608     -1.3756901051
 H      2.6459372142      1.3907076188     -0.8841757088
 H      2.3460999490      4.0359538532      5.0561506194
 O      4.2372476503      4.6271669607      4.3855192665
 C      4.5095213113      4.8826693316      1.9514453907
 C      2.9831186089      4.9482032046      5.0537183540
 H      3.2113708369      5.1752538657      6.0877231523
 N     -2.8837828568      5.8361909423      3.1865397008
 H     -2.8949263461      6.6545200111      0.6120699178
 C     -3.6194526083      5.8151348364      0.8018542683
 H     -4.5636166314      6.2782674567      1.1236661701
 H     -3.6704387780      6.2909218008      3.5230833328
 H     -2.1072086745      6.5488358995      3.0342397395
 C     -1.8334026304      5.2659728196     -1.7592972149
 C      0.3441022557      5.6704521038     -3.2227360011
 H     -0.1245473862      6.4914471588     -3.8325519969
 H     -2.1472363718      6.3531491786     -1.7985154091
 H     -1.0745329579      8.7584776922      1.0550296084
 H      0.0867789009      7.9638016676     -1.5349696468
 H     -1.1540492697      8.7997018324      3.6247820776
 N     -0.6531540526      8.0910538651      3.0818535752
 C     -0.3532631489      8.2162162159      1.7075842272
 H     -0.2013737354      7.1700127659      1.2792792147
 H     -0.2704532399      7.2930480084      3.6212113442
 H      0.9060171637      5.0083752751     -3.8817401547
 H      0.9472753577     10.0571134292      2.0814684596
 N      0.9984760382      6.5283324791      5.1324013029
 H      0.9706783856      6.8818018146      6.0473302667
 H      2.0647123559      6.1292901032      3.4660648311
 C      2.2631354867      6.2373667789      4.5129935366
 H      3.0022969618      7.0125197199      4.6515612756
 H      1.9029177853      8.5247211245      2.2719405466
 C      1.1060931100      8.9989206586      1.6692688218
 C      1.2719001445      6.2776021241     -2.0571449444
 C      0.9991819598      7.4197132834     -1.2734535686
 C      1.8572239827      8.0593531616     -0.4122630053
 C      3.0493264519      7.2749525177     -0.0989128176
 C      3.3014246570      6.1210645436     -0.7601582017
 C      2.3607883504      5.5526887326     -1.6766603748
 C      4.6378726678      5.2831727147     -0.5124933762
 H      4.7926820433      5.8751466091      2.1658680442
 H      5.4066969454      5.9867329301     -0.1687542196
 H      3.7302004076      7.5928808303      0.7053277400
 O      1.4103368385      9.1783674547      0.3065788707
95
# ORCA AIMD Position Step 15, t=15.00 fs, E_Pot=-2377.46334094 Hartree, Unit is Angstrom
 C      0.7260469037      4.5676089969      1.4625281681
 O      0.2209725519      5.1764521286      2.2904485862
 O      1.2111352286      4.0193170010      0.5757021798
 C     -0.3000364530      0.8678234456      0.1800424609
 C     -1.0609483440      0.8994302994      1.3866154854
 C     -0.4029542364      0.8323893974      2.5971198037
 C     -1.0820023747      0.9923167984     -1.0914365557
 C     -1.3246758860      2.5326467728     -1.3685261770
 C     -2.4992990159      3.0549372267     -0.8261431912
 C     -2.8267928346      4.4712343812     -0.9814845331
 C     -0.7573702538      4.8024905336     -2.4044422574
 C     -0.4829426967      3.4132078732     -2.0832333186
 H     -3.2290349611      2.5205583190     -0.1879929550
 H     -0.6495219372      0.4167075268     -1.9289279679
 H     -2.0746923393      0.6413065324     -0.9310063275
 H     -2.1820526436      0.8860189402      1.2606546829
 O     -1.0590698309      0.7500044613      3.7851793822
 C     -1.7591693547      1.9270968956      4.1453784764
 C     -0.6198299426      2.9614898612      4.7870745279
 N     -1.1509546436      4.3482563233      5.2127779056
 H     -2.5056035975      1.7759129012      4.8717414727
 H     -2.0430623511      2.4105336764      3.2054822487
 H     -1.4361402081      4.4670806920      6.1782319895
 H     -4.0243850258      4.3280194892      2.3189860263
 H     -2.2933082596      4.3639424457      1.9217546500
 O      0.7571675202      3.1173901613     -2.6364602017
 H     -1.7265957385      4.8388644864      4.5446716895
 H     -0.1049473693      2.5381290967      5.6092331630
 H      0.2226710880      3.1236306863      4.0822478512
 C     -3.1471334703      4.9460776270      2.0652588548
 O     -3.9046778046      5.0610271259     -0.3784498005
 H      0.1860931863      5.8966940900      5.0053978843
 H      0.9448593428      2.1325071936     -2.4498421601
 C      1.1079798858      1.0932203809      0.2974903244
 C      0.9569885335      0.6501157831      2.6907167639
 C      1.7493588325      0.8321211407      1.5637892144
 C      4.2952222575      4.3690927211      0.7038388255
 C      4.1726480879      4.1123537615      3.0867963802
 C      4.0140047768      2.7023871281      2.9829190219
 C      3.7915522462      2.1868612823      1.6871331059
 C      3.8360151389      3.0746795636      0.5664388184
 C      3.2650673636      0.7780024935      1.4783316703
 O      3.7181538058      2.5054344501     -0.6357278649
 O      2.5989324662      4.4614032309     -2.3023917750
 O      1.7212853407      1.1453964226     -0.8889973137
 H      3.5393461749      0.4713775194      0.4605824294
 H      3.6733227592      0.0606275708      2.1460022605
 H      3.9380400278      2.1612601181      3.8405176394
 H      4.7732780146      4.7887906761     -1.4429786300
 H      1.3539206175      0.3627887536      3.6710843543
 H      1.7944368467      4.0851259662     -2.5583280910
 H      3.6952510185      3.2650286682     -1.2906533130
 H      2.6905787533      1.4430377293     -0.9255494517
 H      2.2045846805      4.1601801674      5.1237429021
 O      4.1782182401      4.6454227127      4.3650885740
 C      4.4660890161      4.8534445117      1.9633261797
 C      2.9667144098      4.9371653411      5.0629316934
 H      3.2871529320      5.0770254428      6.1275884644
 N     -2.8129496248      5.9334358748      3.1910331749
 H     -2.9320073527      6.5893783477      0.5563869518
 C     -3.6472151612      5.8447667548      0.8133450347
 H     -4.6116207242      6.2892477629      1.0576718063
 H     -3.6368345142      6.4335877786      3.5823999311
 H     -2.0578112433      6.5642331294      3.1420350628
 C     -1.8674925919      5.2557528631     -1.7679486108
 C      0.3634903875      5.6876435271     -3.2333672065
 H     -0.0955094032      6.3777063758     -3.8890898589
 H     -2.0671819740      6.2538586385     -1.8633166202
 H     -1.0659925506      8.6960354817      1.1949054572
 H      0.0650080884      8.0039356507     -1.3988684631
 H     -1.1370533467      8.7188324503      3.6815197654
 N     -0.6116702735      8.1088502583      3.1177783748
 C     -0.2740113177      8.1953082827      1.7150702057
 H     -0.1230131588      7.2786225575      1.2658513994
 H     -0.2587621467      7.3407117747      3.6089474953
 H      0.9944858477      5.1005826177     -3.9083106311
 H      0.8446629750      9.9554757529      2.1836720083
 N      0.9479403234      6.6034901535      5.2120109359
 H      0.8263367346      6.9237225184      6.1904384381
 H      2.0444200564      6.2452553983      3.4088001979
 C      2.2879105444      6.2927571911      4.5137016159
 H      2.7007293636      7.3183717070      4.7503980534
 H      1.7952050586      8.5584360159      2.3234713150
 C      1.0828249238      9.0695423439      1.6718992815
 C      1.2046511836      6.3367082412     -2.0606250364
 C      0.9839708389      7.4700653105     -1.2874482938
 C      1.8558380043      8.1114014769     -0.3499156720
 C      3.0568404105      7.3115689360     -0.0561097568
 C      3.2749307191      6.0738139640     -0.7605932096
 C      2.3371833027      5.5722237726     -1.6345927949
 C      4.5915024074      5.2772161907     -0.5504582303
 H      4.8392351308      5.9183790692      1.9709740149
 H      5.3991375156      5.9159178834     -0.2299248586
 H      3.7426860167      7.6530121971      0.6842786517
 O      1.4121276765      9.2176782039      0.2970317196
95
# ORCA AIMD Position Step 20, t=20.00 fs, E_Pot=-2377.44929110 Hartree, Unit is Angstrom
 C      0.7642185414      4.6411380768      1.5230300048
 O      0.2727235754      5.2428920628      2.3308266243
 O      1.2221388384      4.0837089143      0.6967592266
 C     -0.3224399521      0.9557922413      0.2198046014
 C     -1.0170960088      0.9031539052      1.3768747166
 C     -0.4096042543      0.8391111682      2.6348643303
 C     -1.0821623741      1.0007934461     -1.0625925107
 C     -1.3013443628      2.5135602699     -1.3630965065
 C     -2.4885874482      3.0863308222     -0.8131023807
 C     -2.7906592237      4.4503381198     -0.9998918779
 C     -0.7440975773      4.7874536475     -2.4444445010
 C     -0.4740569441      3.5205930973     -2.1129756270
 H     -3.2329302135      2.4708937660     -0.3626167950
 H     -0.5070552932      0.4411720564     -1.7712958359
 H     -2.0900965992      0.5484034408     -1.0185312867
 H     -2.0380632904      1.0407637662      1.3809815150
 O     -1.1079287764      0.8196911185      3.7974704007
 C     -1.7360645766      1.9925035164      4.1577977568
 C     -0.6815017844      2.9840871372      4.7763368409
 N     -1.1710395301      4.4268525018      5.2225173002
 H     -2.6691370720      1.8937552453      4.8489206189
 H     -2.0882719277      2.4793816625      3.2468878562
 H     -1.4500094780      4.5263145510      6.1882395808
 H     -3.9032841766      4.2388976517      2.3900732918
 H     -2.1876607062      4.3135283514      1.8848649141
 O      0.7649600779      3.1338180821     -2.6236583268
 H     -1.7899429541      4.9983213028      4.6522955586
 H     -0.3205474957      2.5118165920      5.7432946639
 H      0.1651454921      3.0393445638      4.1166480406
 C     -3.1315643580      4.9422325894      2.0916997991
 O     -3.8873023092      5.0354962957     -0.3890871645
 H      0.2019124135      5.9498253036      5.1310957554
 H      0.9903258755      2.1933136736     -2.4274116174
 C      1.1015555507      1.0787525682      0.3452186577
 C      0.9171101559      0.6522414780      2.7005283280
 C      1.7661288690      0.8972291085      1.5749695690
 C      4.2592103597      4.3365237283      0.6842255547
 C      4.1837223752      4.1017262255      3.1108281993
 C      4.0271674476      2.7123082406      2.9532466521
 C      3.7694795849      2.1653202710      1.6946136729
 C      3.8167472613      3.0352990169      0.6081640372
 C      3.2755266326      0.7740868623      1.4885970741
 O      3.6511667364      2.4970274760     -0.6343845405
 O      2.5768734386      4.4712513605     -2.2684130440
 O      1.7116567335      1.2008888006     -0.8345174116
 H      3.5456666662      0.4093706857      0.5276744118
 H      3.6592414213      0.0521982301      2.2291556512
 H      4.0945677173      2.1723204653      3.9924123277
 H      4.6377076265      4.7564951790     -1.5646186015
 H      1.2015677852      0.4712153813      3.7102543550
 H      1.7057761767      4.0407572897     -2.6138229988
 H      3.5412697543      3.1905628077     -1.3240144037
 H      2.6087592266      1.5461498607     -0.8287694510
 H      2.1009765370      4.2461224206      5.0228846679
 O      4.1215362609      4.6654211940      4.3417289614
 C      4.4211899292      4.8684549692      1.9809194541
 C      2.9565969339      4.9612659744      5.0748546673
 H      3.3334374472      5.0227918428      6.0750451717
 N     -2.7629284666      6.0072147223      3.1963631093
 H     -2.8871805416      6.6319330922      0.5579599029
 C     -3.6678301130      5.8391638276      0.8152120781
 H     -4.6309672936      6.3396654426      1.0259822968
 H     -3.5794412007      6.5012009216      3.5677155523
 H     -1.9149493050      6.5688181349      3.0337566872
 C     -1.9564560505      5.2590719720     -1.7603879506
 C      0.3456682312      5.6991798317     -3.1756756919
 H     -0.1938550877      6.4081896843     -3.8594581575
 H     -2.1007710448      6.3868347680     -1.9377309124
 H     -1.0409580484      8.6940646687      1.2466849919
 H     -0.0064708168      8.0916180872     -1.3603173021
 H     -1.1358034220      8.8087240513      3.5981051458
 N     -0.5795945638      8.0945090031      3.1601419013
 C     -0.1761120815      8.2226045064      1.7590310474
 H     -0.0155819926      7.2040727936      1.2230625290
 H     -0.1053388002      7.3951356664      3.7084374970
 H      1.0406040228      5.1489288669     -3.7935949327
 H      0.7562216088     10.1116600116      2.2073485771
 N      0.8847125276      6.6571953803      5.2708376112
 H      0.9916089463      6.9150873771      6.2391526716
 H      2.1298067010      6.3253175275      3.5238433052
 C      2.2512856318      6.3846415723      4.5616385219
 H      2.7558386909      7.3119428583      4.7232355668
 H      1.7841773442      8.5693321073      2.2424827685
 C      1.0185037498      9.1043697144      1.6609990075
 C      1.1568451823      6.3929611724     -2.0431235984
 C      0.9452642869      7.5574617858     -1.3175923567
 C      1.8822204101      8.0653169914     -0.2866260161
 C      3.0237289114      7.3615161050     -0.0383804515
 C      3.2568519570      6.0754870692     -0.7286579515
 C      2.3109806057      5.6355087809     -1.6209987595
 C      4.4987740593      5.2756127468     -0.5395216883
 H      4.7695197264      5.8311956337      1.9648223223
 H      5.4006101324      5.8859086788     -0.4117199579
 H      3.8133258157      7.7213013771      0.6413547710
 O      1.4352354854      9.2759657124      0.2878335829
95
# ORCA AIMD Position Step 25, t=25.00 fs, E_Pot=-2377.48110529 Hartree, Unit is Angstrom
 C      0.7889064165      4.7354295109      1.6082404182
 O      0.2883315977      5.3545826331      2.4403296853
 O      1.2798905849      4.0892229665      0.7362410105
 C     -0.3233802828      1.0468087761      0.3017220730
 C     -0.9962488518      0.9236836441      1.3932950781
 C     -0.4288608625      0.8357911262      2.6543351653
 C     -1.0690923660      1.0375938794     -1.0580480204
 C     -1.3101613724      2.5609344461     -1.3721375662
 C     -2.4467688123      3.1006575256     -0.8312606792
 C     -2.7312839537      4.4607876090     -1.0172017369
 C     -0.7746420158      4.8039692007     -2.4473807441
 C     -0.4414672972      3.5375548160     -2.1399912721
 H     -3.1890830482      2.3968911394     -0.4443201221
 H     -0.3630543426      0.5518168277     -1.7604763857
 H     -1.9833074167      0.4638114485     -1.0182126733
 H     -2.0986229736      1.1139802435      1.4518330264
 O     -1.1660426720      0.8637651125      3.8231628952
 C     -1.7392650496      2.1150128344      4.1628640072
 C     -0.7664386653      3.0592080883      4.8223406460
 N     -1.1707897614      4.4672682053      5.2188756056
 H     -2.5688507679      1.8824762968      4.7221975511
 H     -2.2391884026      2.5748192957      3.3049964938
 H     -1.4444177059      4.4218951575      6.1903850147
 H     -3.7785263415      4.2401250516      2.5447035259
 H     -2.2746973952      4.4749970582      1.7828901507
 O      0.7396532749      3.1077972358     -2.6154274621
 H     -1.8453477647      4.9840132844      4.6010992026
 H     -0.5533152490      2.5530113100      5.7208727046
 H      0.0905224536      3.0302346780      4.1162850864
 C     -3.0995715084      5.0094946121      2.1315260465
 O     -3.8762720017      5.0082387719     -0.3900631283
 H      0.2154058496      5.8669528470      5.2900155405
 H      1.0563108311      2.2604505333     -2.3089623152
 C      1.0738091606      1.0437701657      0.3843300336
 C      0.9307570533      0.6785637643      2.7091305370
 C      1.7359283629      0.9279714369      1.5728573456
 C      4.2393103051      4.3178884157      0.6849836470
 C      4.1811116485      4.0873671925      3.1211500290
 C      4.0298819857      2.7226198620      2.9458639835
 C      3.7671111940      2.1719537513      1.7324137679
 C      3.8232607444      2.9899583250      0.6310009533