95
# ORCA AIMD Position Step 0, t=0.00 fs, E_Pot=-2377.77312593 Hartree, Unit is Angstrom
 C      0.6349088028      4.4189455198      1.2531892056
 O      0.1241404006      4.9620756222      2.1576441097
 O      1.1432776051      3.8779905174      0.3535120016
 C     -0.3448398015      0.8773550039      0.1484643007
 C     -1.0373599046      0.7945536036      1.3602440061
 C     -0.3513624016      0.7083500032      2.5738285115
 C     -1.1066526050      1.0761843048     -1.1496903051
 C     -1.3823100062      2.5458743114     -1.4126994063
 C     -2.5089642112      3.1437604141     -0.8389557038
 C     -2.7471413123      4.5112794202     -0.9679539043
 C     -0.7285772033      4.7311464212     -2.3051769103
 C     -0.4878536022      3.3579627150     -2.1310462095
 H     -3.2161396144      2.5414202114     -0.2660681012
 H     -0.5636965025      0.6213051028     -1.9900901089
 H     -2.0696022093      0.5518673025     -1.0741274048
 H     -2.1291415095      0.8015233036      1.3630049061
 O     -1.0323898046      0.6222569028      3.7759366169
 C     -1.6181549072      1.8653577084      4.2166275189
 C     -0.5632473025      2.8610873128      4.7085136211
 N     -1.0909446049      4.1414337185      5.1781385232
 H     -2.3044959103      1.5909515071      5.0315874225
 H     -2.2141312099      2.3184896104      3.4030962152
 H     -1.6329527073      4.0095811180      6.0346023270
 H     -4.0449170181      4.2754807191      2.1859474098
 H     -2.3435858105      4.4014125197      1.7357262078
 O      0.6689426030      2.8349460127     -2.6817286120
 H     -1.7311324078      4.5796671205      4.4908766201
 H      0.0184423001      2.3898023107      5.5172400247
 H      0.1447207006      3.0550247137      3.8881074174
 C     -3.2328904145      4.9958215224      1.9956647089
 O     -3.8764007174      5.0627451227     -0.3877888017
 H      0.4121762018      5.6141487251      5.0779081227
 H      0.9711930043      2.0495685092     -2.1347959096
 C      1.0599477047      0.8714850039      0.1719153008
 C      1.0420661047      0.6657375030      2.5714599115
 C      1.7688008079      0.7473704033      1.3793252062
 C      4.4339270199      4.4107835198      0.7293294033
 C      4.2163383189      4.1023597184      3.1336857140
 C      3.8641986173      2.7660338124      2.9309584131
 C      3.7715727169      2.2358760100      1.6405963073
 C      4.0413017181      3.0736875138      0.5454871024
 C      3.2846252147      0.8123555036      1.4371530064
 O      3.8940896174      2.5390707114     -0.7223902032
 O      2.8397102127      4.3674896196     -2.3676544106
 O      1.7219977077      1.0058875045     -1.0358362046
 H      3.7318531167      0.3761431017      0.5328799024
 H      3.6250320162      0.2013403009      2.2849031102
 H      3.6550197164      2.1320541095      3.7948704170
 H      5.0658448227      4.8163787216     -1.3062818059
 H      1.5644580070      0.5805611026      3.5258752158
 H      2.0056572090      3.8676873173     -2.6163987117
 H      3.6430003163      3.2698515146     -1.3628537061
 H      2.6079418117      1.4510333065     -0.8804311039
 H      2.3891144107      4.0069626179      4.9764008223
 O      4.3133538193      4.6301728207      4.4096886197
 C      4.5162451202      4.9059968220      2.0346982091
 C      3.0425496136      4.8964396219      5.0398017226
 H      3.2752795147      5.0753068227      6.1001636273
 N     -2.9516799132      5.7392253257      3.2232357144
 H     -2.8113508126      6.5917362295      0.5821728026
 C     -3.6119924162      5.8575105262      0.7875070035
 H     -4.5428923203      6.4113088287      0.9803768044
 H     -3.8048940170      6.1770029277      3.5768456160
 H     -2.2706259102      6.5057067291      3.0722033138
 C     -1.8649837084      5.2938973237     -1.7164279077
 C      0.2714254012      5.6169891252     -3.0264389136
 H     -0.2738036012      6.4423117289     -3.5053292157
 H     -2.0676756093      6.3598877285     -1.8374569082
 H     -1.0509495047      8.8893113398      1.1616385052
 H      0.0343566002      7.9076925354     -1.5863250071
 H     -1.0008538045      8.9319499400      3.5288059158
 N     -0.8187968037      8.0377975360      3.0683291137
 C     -0.3316561015      8.2571966370      1.7069597076
 H     -0.3085467014      7.2888306326      1.1839786053
 H     -0.1265576006      7.5407112338      3.6580856164
 H      0.7718348035      5.0594441227     -3.8306551172
 H      1.0559164047      9.9017973443      2.0544383092
 N      1.0405817047      6.4367026288      5.0255784225
 H      1.1656730052      6.7661090303      5.9850379268
 H      2.1857428098      5.9219570265      3.3535285150
 C      2.3344864105      6.1089273274      4.4281087198
 H      3.0007848134      6.9834948313      4.5031296202
 H      1.7938323080      8.2787533371      2.1581568097
 C      1.0574988047      8.8951248398      1.6104180072
 C      1.2851663058      6.2092122278     -2.0638627092
 C      0.9704321043      7.3867350331     -1.3780498062
 C      1.8260532082      7.9111509354     -0.4103431018
 C      3.0388583136      7.2703761326     -0.1467933007
 C      3.3876638152      6.0917228273     -0.8129625036
 C      2.4936915112      5.5602605249     -1.7575733079
 C      4.6609386209      5.3549239240     -0.4379127020
 H      4.8071656215      5.9433375266      2.2089372099
 H      5.4188017243      6.0939591273     -0.1423454006
 H      3.7187430167      7.6973561345      0.5931214027
 O      1.4791910066      9.0813167407      0.2427093011
95
# ORCA AIMD Position Step 5, t=6.25 fs, E_Pot=-2377.69384571 Hartree, Unit is Angstrom
 C      0.6565247049      4.4409911209      1.2959995171
 O      0.1255453074      5.0271984933      2.2133537709
 O      1.1730567660      3.8905232678      0.3684129041
 C     -0.3061491818      0.8492126650      0.1849000673
 C     -1.0592403380      0.8315522645      1.3515017935
 C     -0.3784848209      0.7460463591      2.5660551364
 C     -1.0992169694      1.0531877441     -1.1534020117
 C     -1.3638793174      2.5497285542     -1.4071304363
 C     -2.5314823254      3.1484724841     -0.8388514131
 C     -2.7509004976      4.4709997893     -0.9755164380
 C     -0.7298646185      4.7365193400     -2.3240989641
 C     -0.4815371941      3.3433907155     -2.1148668064
 H     -3.1229533270      2.4856473339     -0.2084469991
 H     -0.6670550038      0.5965429429     -2.0449711255
 H     -2.0378289482      0.5756864023     -0.9719996358
 H     -2.1591126561      0.7576875094      1.3408342113
 O     -1.0297278338      0.6335233149      3.7824685904
 C     -1.6531248619      1.8815495646      4.1821403681
 C     -0.5656543524      2.9210675009      4.7567013701
 N     -1.0918767562      4.1600383420      5.1751730130
 H     -2.3540104345      1.5769269006      4.9098774332
 H     -2.2712157197      2.3190300469      3.3936804869
 H     -1.5756292993      4.1085819492      6.0650539377
 H     -4.0167845478      4.3400497580      2.2737740001
 H     -2.3997455723      4.4063186865      1.7451636225
 O      0.6752140564      2.9110294919     -2.6650040573
 H     -1.7074160916      4.5626646402      4.4839912073
 H     -0.0206460530      2.4227593937      5.5229932621
 H      0.0778936003      3.1112644857      3.8950473870
 C     -3.2062826167      5.0208739414      2.0243801830
 O     -3.8978321991      5.0742808794     -0.3761675160
 H      0.3525362043      5.6725507834      4.9902864271
 H      1.0675273053      2.0644362777     -2.2728639586
 C      1.0572768093      0.9398612092      0.2058908616
 C      1.0490037550      0.6640922046      2.6048678386
 C      1.7370904013      0.7499011382      1.4291090716
 C      4.4011100902      4.4018177171      0.7038209939
 C      4.1943409952      4.0970868382      3.1179286934
 C      3.9045179193      2.7479830554      2.9429845900
 C      3.7918741994      2.2487318047      1.6680566686
 C      3.9855111328      3.0726250157      0.5662952084
 C      3.2768817126      0.7959546579      1.4473187569
 O      3.8592907073      2.5390674480     -0.7040271276
 O      2.7722414846      4.3959829898     -2.3546707091
 O      1.7251322068      1.0329129768     -1.0147767007
 H      3.6536691052      0.4106843256      0.5001405909
 H      3.6629848837      0.1726364894      2.2251947673
 H      3.6868781784      2.1090104377      3.7239474140
 H      5.0833445750      4.7927848558     -1.2617105751
 H      1.5917589328      0.4822129858      3.5267303771
 H      2.0363692423      3.8516199747     -2.6159343310
 H      3.6787406510      3.2032968796     -1.4273577341
 H      2.6443518807      1.4202826767     -0.8684119676
 H      2.4182805735      4.0229603041      4.9762234182
 O      4.2901214525      4.6251408560      4.4027252467
 C      4.5199207038      4.9008054827      1.9984136382
 C      3.0229944593      4.9184376859      5.0437069957
 H      3.2388119388      5.1525905406      6.1016944900
 N     -2.9323693816      5.7640227368      3.2045819841
 H     -2.8792341697      6.5995309778      0.6254217031
 C     -3.6084804444      5.8364680318      0.7859795329
 H     -4.5223439441      6.3517211855      1.0574845637
 H     -3.8005695701      6.2017270198      3.5584882488
 H     -2.2386719663      6.4503452700      3.0128064402
 C     -1.8572229156      5.2945495769     -1.7286520491
 C      0.2934870637      5.6413687991     -3.1099788330
 H     -0.1974755379      6.4513130810     -3.5940776800
 H     -2.0917435883      6.3087331442     -1.8092762623
 H     -1.0310639488      8.8229998044      1.1042183797
 H      0.0801339361      7.9068277938     -1.5916385503
 H     -1.0679916267      8.8861040824      3.5146873892
 N     -0.7548631540      8.0547155446      3.0741636499
 C     -0.3583530584      8.2404856375      1.7009705258
 H     -0.2955634605      7.2911972318      1.2670390127
 H     -0.2009187294      7.4353841158      3.6199656179
 H      0.8092429211      5.0117797278     -3.8253905662
 H      1.0519712950      9.9235908064      1.9895856980
 N      1.0357820691      6.4595853181      5.0533315156
 H      1.1518630788      6.8295287268      6.0017276812
 H      2.1477413932      5.9898397491      3.3896181577
 C      2.2860680417      6.1619611684      4.4731910331
 H      3.1090285158      6.8946607444      4.5301142567
 H      1.8585407231      8.3864985284      2.1688031915
 C      1.0817999478      8.9322948574      1.6390450699
 C      1.3000107717      6.2254480926     -2.0550437114
 C      0.9816138610      7.3964008825     -1.3315595217
 C      1.8462357802      7.9539104156     -0.4236646115
 C      3.0371410439      7.2688278925     -0.1353462080
 C      3.3549192504      6.1187969456     -0.7862537039
 C      2.4354909205      5.5593875002     -1.7343469211
 C      4.6606243246      5.3222139667     -0.4642318153
 H      4.7978047615      5.9402855981      2.2440986015
 H      5.4027707053      6.0453886937     -0.1744598315
 H      3.7061522491      7.6199525239      0.6133223687
 O      1.4502279196      9.1172525418      0.2738066101
95
# ORCA AIMD Position Step 10, t=12.50 fs, E_Pot=-2377.71344249 Hartree, Unit is Angstrom
 C      0.6727623866      4.4812217496      1.3502817932
 O      0.1615978857      5.0614270945      2.2199185644
 O      1.1793486438      3.9321240429      0.4363635047
 C     -0.3107058417      0.8615251038      0.1768817892
 C     -1.0566208593      0.8489666392      1.3697328590
 C     -0.3779131835      0.7681093167      2.5757508039
 C     -1.0935879128      1.0299185844     -1.1339048855
 C     -1.3581426970      2.5603889224     -1.3924006368
 C     -2.5058516486      3.1044819077     -0.8371514079
 C     -2.7856137254      4.4871515649     -0.9753287990
 C     -0.7515565904      4.7628069050     -2.3379530805
 C     -0.4823428893      3.3624301613     -2.1022961094
 H     -3.1655078976      2.5352518953     -0.2170235716
 H     -0.6342813731      0.5463256798     -1.9735422551
 H     -2.0682556542      0.6004177009     -0.9694644580
 H     -2.1135213098      0.8210191652      1.2957037245
 O     -1.0377834587      0.6759255487      3.7782874012
 C     -1.6922989024      1.8780536613      4.1681104048
 C     -0.5718072903      2.9250895185      4.7545739581
 N     -1.1189595402      4.2225447268      5.1909591625
 H     -2.4278917670      1.6452206306      4.9812580490
 H     -2.1667273771      2.3524682375      3.3035506996
 H     -1.5097109586      4.2286776888      6.1153525800
 H     -4.0277640214      4.3311364503      2.2626418109
 H     -2.3059402776      4.3635707425      1.8099601539
 O      0.7044422956      2.9731375353     -2.6543467153
 H     -1.6711565162      4.6788747312      4.4888084581
 H     -0.0034764343      2.4560163232      5.5626504848
 H      0.1562322963      3.1140505111      3.9818205142
 C     -3.1905778882      4.9742789391      2.0394632478
 O     -3.8889078955      5.0681055723     -0.3786607626
 H      0.3076856638      5.7857963876      4.9936084840
 H      0.9697831921      2.0762692319     -2.3274412479
 C      1.0821722432      0.9827295821      0.2261458579
 C      1.0129033354      0.6599479928      2.6253235189
 C      1.7368271479      0.7789780646      1.4687701497
 C      4.3665650602      4.3895431178      0.7241624690
 C      4.1935315996      4.1063680438      3.1062916894
 C      3.9350208308      2.7388657974      2.9485689088
 C      3.7882855222      2.2311059768      1.6720028574
 C      3.9425768918      3.0776287461      0.5504125430
 C      3.2777799999      0.7894888602      1.4531191572
 O      3.8146851090      2.5298540985     -0.6773046984
 O      2.7223088512      4.4174032317     -2.3328984684
 O      1.7223071331      1.0700632757     -0.9698420997
 H      3.6207808558      0.4477167408      0.5028884627
 H      3.6645474976      0.1284010207      2.2109734233
 H      3.7438755015      2.0992449453      3.8196941565
 H      4.9596542941      4.7659998836     -1.3928351767
 H      1.5023673325      0.4625932601      3.5518069857
 H      1.9190998637      3.9325229955     -2.6436409883
 H      3.7225117176      3.2336009246     -1.3577566767
 H      2.6457441548      1.3831422674     -0.9218969275
 H      2.3357574786      4.0524429265      5.0571566293
 O      4.2516604840      4.6320592680      4.3893705745
 C      4.4996200955      4.8817983786      1.9904721012
 C      3.0193960600      4.9067846743      5.0570027730
 H      3.2493231607      5.0970492092      6.0947121183
 N     -2.8972081321      5.8209907830      3.2022575556
 H     -2.8597226349      6.6221086791      0.5702209671
 C     -3.6298568549      5.8504764491      0.7821403731
 H     -4.5695845927      6.3473952476      1.0441733662
 H     -3.7243615446      6.2724692761      3.5957991448
 H     -2.1597532715      6.4955002630      3.1263020505
 C     -1.8486104324      5.2662432833     -1.7426628883
 C      0.3167629955      5.6489234622     -3.1419840782
 H     -0.1812254563      6.4334315903     -3.7076090707
 H     -2.0751731161      6.3279265237     -1.8228139722
 H     -1.0753736151      8.7992130199      1.1403082276
 H      0.0705332682      7.9294478842     -1.5227179193
 H     -1.0658804794      8.8331287017      3.6190875321
 N     -0.7221657128      8.0708908774      3.0840760782
 C     -0.3354142680      8.2207492865      1.7064556943
 H     -0.2283589876      7.2285543347      1.2184356437
 H     -0.2017014694      7.4238800839      3.6352842171
 H      0.8624108467      5.0553270750     -3.8562570824
 H      0.9619226281      9.9863363321      2.1257357379
 N      1.0064710494      6.5038147659      5.1070926508
 H      0.9893419186      6.8576761175      6.0500027451
 H      2.1111925759      6.0704276851      3.4193095703
 C      2.2998134727      6.2007566834      4.4574215154
 H      2.8991377174      7.0900396902      4.6163733006
 H      1.8260691820      8.4294668331      2.2495730765
 C      1.0960641104      8.9769326808      1.6354928807
 C      1.2659959843      6.2621353724     -2.0509062289
 C      0.9866941095      7.4109626001     -1.3232296380
 C      1.8384354301      8.0102144342     -0.3984805437
 C      3.0474110704      7.2762866479     -0.1125713420
 C      3.3233394234      6.0992731269     -0.7862512598
 C      2.4155664040      5.5566012660     -1.7036831334
 C      4.6441120011      5.3180504710     -0.4910336999
 H      4.7999247218      5.8907995587      2.1140677781
 H      5.4057682752      6.0074675531     -0.1675540951
 H      3.7135418716      7.6372916184      0.6504775201
 O      1.4422099230      9.1352341006      0.2773665648
95
# ORCA AIMD Position Step 15, t=18.75 fs, E_Pot=-2377.68402294 Hartree, Unit is Angstrom
 C      0.7000681677      4.5208049033      1.3809722528
 O      0.1987678746      5.0972669443      2.2345156606
 O      1.1800726949      3.9791740722      0.5216815433
 C     -0.3313509760      0.9158568587      0.1805519391
 C     -1.0222857837      0.8535291172      1.3696696778
 C     -0.3804339964      0.7744368091      2.6037715151
 C     -1.0928922379      1.0387113237     -1.1047060105
 C     -1.3355386884      2.5371446432     -1.3844175675
 C     -2.4946633714      3.1160996285     -0.8255390159
 C     -2.7756654256      4.4831840998     -0.9854795795
 C     -0.7370368858      4.7587786331     -2.3671834943
 C     -0.4803310786      3.4370318021     -2.1131509487
 H     -3.2168967076      2.5148755823     -0.2999127622
 H     -0.5295545490      0.5186101074     -1.8814312853
 H     -2.0903238771      0.5581659129     -1.0507111709
 H     -2.0847074150      0.9331557204      1.3476843948
 O     -1.0617254974      0.7218750300      3.7771023258
 C     -1.6897617370      1.9099870900      4.1799224005
 C     -0.6070174985      2.9232117206      4.7406196957
 N     -1.1327226294      4.2801260827      5.2016298900
 H     -2.4872677952      1.7274878591      4.9493091539
 H     -2.1423385552      2.3809632766      3.2985250584
 H     -1.5308437334      4.3113453246      6.1268987530
 H     -3.9848335401      4.2448901115      2.2832778616
 H     -2.2560165330      4.3414453587      1.8310600724
 O      0.7281946083      2.9999302008     -2.6436781461
 H     -1.7302092326      4.8269436797      4.5607651819
 H     -0.1117301511      2.4586451263      5.6305757912
 H      0.1905788327      3.0655613014      4.0044172142
 C     -3.1764196145      4.9519521804      2.0476228545
 O     -3.8723368401      5.0513324777     -0.3910098113
 H      0.2837685924      5.8229258461      5.0576678574
 H      0.9224675725      2.1164921440     -2.3124732908
 C      1.0901542346      0.9849493149      0.2554010852
 C      0.9742755012      0.6597994531      2.6328102058
 C      1.7628324075      0.8249108861      1.4735485130
 C      4.3402173040      4.3722590972      0.7111240573
 C      4.2016257247      4.1069157097      3.1192207636
 C      3.9449169856      2.7417760385      2.9416971593
 C      3.7681667734      2.2044736614      1.6640879719
 C      3.9228218081      3.0628093784      0.5667940510
 C      3.2793192477      0.7949444278      1.4619450518
 O      3.7662128636      2.5191404765     -0.6695330546
 O      2.6975949079      4.4180758883     -2.3104904824
 O      1.7141023796      1.1087012645     -0.9318069996
 H      3.6371007441      0.4094286088      0.5088915653
 H      3.6571280080      0.1091590970      2.2456363598
 H      3.8459320787      2.1464097754      3.8970969319
 H      4.8401852215      4.7845057545     -1.4482301109
 H      1.3923022797      0.5192672249      3.6214386856
 H      1.8315735924      3.9768703143     -2.6494051628
 H      3.6546303223      3.2269893864     -1.3369781294
 H      2.6282277845      1.4345228578     -0.8788342987
 H      2.2469278367      4.0993070430      5.0340706435
 O      4.2160290182      4.6424836372      4.3711761749
 C      4.4658954431      4.8799956159      2.0088945873
 C      3.0113042926      4.9118480244      5.0619158040
 H      3.3284324916      5.0459467273      6.1016275785
 N     -2.8621839161      5.8750564527      3.2119120811
 H     -2.8615113620      6.6199970096      0.5454557790
 C     -3.6430052661      5.8587860590      0.7872027136
 H     -4.5985655414      6.3728749411      0.9846944305
 H     -3.6635067987      6.3189953705      3.6037428743
 H     -2.0474882040      6.5263040005      3.1101766741
 C     -1.9005795431      5.2630659031     -1.7335543137
 C      0.3097048851      5.6508050089     -3.1040046473
 H     -0.2227675165      6.4173812790     -3.7131246375
 H     -2.0535926903      6.3645782516     -1.8721821993
 H     -1.0684600239      8.7757560248      1.2027433001
 H      0.0090066267      7.9773225739     -1.4696117494
 H     -0.9955778624      8.9091023058      3.5988033957
 N     -0.7176204732      8.0569790681      3.1083124356
 C     -0.2663611317      8.2266470815      1.7272865961
 H     -0.1758417416      7.2328675076      1.2079452649
 H     -0.0771912890      7.4812586853      3.6892146931
 H      0.9126897404      5.0827662516     -3.8204190398
 H      0.9155605984     10.0087568835      2.1254593991
 N      0.9640089158      6.5445104430      5.1470982692
 H      1.0259998642      6.8570183149      6.0927843130
 H      2.1401134768      6.1384720777      3.4031562247
 C      2.2955696383      6.2466554658      4.4772279373
 H      2.8240107332      7.1836565469      4.6133365077
 H      1.8006756287      8.4416025525      2.2168005235
 C      1.0586319675      9.0093253387      1.6342207852
 C      1.2224558332      6.2924354294     -2.0480262041
 C      0.9663954366      7.4597242995     -1.3407876863
 C      1.8523275234      7.9957644918     -0.3539211209
 C      3.0263623216      7.3093073985     -0.0954281706
 C      3.3147677770      6.0778909519     -0.7749633686
 C      2.4015052494      5.5852458174     -1.6853487509
 C      4.5856230101      5.3173805627     -0.4928083119
 H      4.7900877991      5.8901849150      2.0512789833
 H      5.4286868544      5.9877233104     -0.2710170665
 H      3.7574627213      7.6850521992      0.6361318654
 O      1.4576692346      9.1640194287      0.2667664337
95
# ORCA AIMD Position Step 20, t=25.00 fs, E_Pot=-2377.69509236 Hartree, Unit is Angstrom
 C      0.7154896347      4.5804330585      1.4314207110
 O      0.2095660406      5.1657801346      2.3034033563
 O      1.2185199922      3.9824915918      0.5434765314
 C     -0.3309861538      0.9768679899      0.2375345723
 C     -1.0098774621      0.8712320821      1.3686164818
 C     -0.3877431759      0.7716224250      2.6150213099
 C     -1.0810734545      1.0679622731     -1.1027106148
 C     -1.3369322551      2.5636109201     -1.3865387019
 C     -2.4653574859      3.1224262843     -0.8342339914
 C     -2.7320704957      4.4850827932     -0.9962012459
 C     -0.7565623085      4.7683492949     -2.3649348445
 C     -0.4527581854      3.4545345172     -2.1307821735
 H     -3.1972354443      2.4704017009     -0.3514321285
 H     -0.4489812163      0.6030079800     -1.8671082968
 H     -2.0113659267      0.5182232330     -1.0562495555
 H     -2.1058299093      0.9813805968      1.4103552446
 O     -1.0991125967      0.7482651379      3.7934925120
 C     -1.6844831151      1.9905013290      4.1832270617
 C     -0.6659981009      2.9712460729      4.7667377213
 N     -1.1270929895      4.3104454922      5.1970327906
 H     -2.4418151180      1.7219903719      4.8592845797
 H     -2.2402907409      2.4416609328      3.3614634999
 H     -1.5375623406      4.2262400277      6.1207442451
 H     -3.8932215756      4.2518335896      2.3746668615
 H     -2.3057580270      4.4521014746      1.7551874942
 O      0.7236002349      2.9972308192     -2.6312101485
 H     -1.7671805148      4.7986996386      4.5281314808
 H     -0.2814360684      2.4678490596      5.6279521617
 H      0.1117729330      3.0391417353      3.9957921994
 C     -3.1575512810      5.0018721088      2.0710633271
 O     -3.8656629938      5.0347120117     -0.3964802792
 H      0.3013820697      5.7588612713      5.1573633039
 H      1.0232305030      2.1529230509     -2.2275512898
 C      1.0693940927      0.9685654487      0.2808732193
 C      0.9864054181      0.6792543817      2.6382832465
 C      1.7507755604      0.8486187382      1.4717255510
 C      4.3259549532      4.3659590362      0.7072956980
 C      4.1979017258      4.0953852795      3.1247421252
 C      3.9402186722      2.7435527361      2.9321780900
 C      3.7614109986      2.2095060609      1.6897493836
 C      3.9221741288      3.0311338565      0.5850589237
 C      3.2839699351      0.7866979412      1.4760985387
 O      3.7201177923      2.5115974419     -0.6784188416
 O      2.6890373410      4.4210040178     -2.2832685852
 O      1.7012811046      1.1430479859     -0.9117231960
 H      3.6587178857      0.3480370776      0.5423458682
 H      3.6226441038      0.1800032791      2.3037656494
 H      3.8731905596      2.1365329605      3.7843560640
 H      4.7804075567      4.7366820821     -1.3345340617
 H      1.4423800643      0.5939752503      3.6295526226
 H      1.9243321917      3.8523609994     -2.6067443037
 H      3.4785844814      3.1810903003     -1.3772210565
 H      2.6121004285      1.5587758653     -0.7768979367
 H      2.2853268060      4.1364662510      4.9350839336
 O      4.1971564514      4.6540595207      4.3623452150
 C      4.4329586851      4.8957702317      1.9950384751
 C      2.9869993195      4.9605688950      5.0520246545
 H      3.3007873926      5.0550617828      6.1129740164
 N     -2.8312345161      5.8875410508      3.2077031850
 H     -2.8992261792      6.5868630889      0.6287938775
 C     -3.6343673214      5.8262893139      0.7828028414
 H     -4.5637782591      6.3475305077      0.9944963873
 H     -3.6161098295      6.3879282014      3.5411000679
 H     -2.0481584420      6.5363959397      2.9514928962
 C     -1.9311752162      5.2914884577     -1.7529227125
 C      0.2677108611      5.6616549510     -3.0408900774
 H     -0.2583748917      6.4220035857     -3.5801146344
 H     -2.1804404074      6.3195107170     -1.8405560420
 H     -0.9801663649      8.7559736781      1.1935351609
 H      0.0177722625      8.0682583001     -1.5067539166
 H     -0.8710084635      8.9898261979      3.4605249586
 N     -0.7135945241      8.0223534225      3.1389984698
 C     -0.2352650501      8.2370823940      1.7586117973
 H     -0.0934398964      7.3086336081      1.3050124636
 H      0.0356432388      7.6368924887      3.7673215118
 H      0.8829217528      5.0779736961     -3.7200141417
 H      0.9462165171     10.0154230837      1.9761202336
 N      0.9437020635      6.5761499224      5.1606618057
 H      1.1807402193      6.8241457728      6.1131930724
 H      2.1502070381      6.1365537757      3.4421501761
 C      2.2442610207      6.2977488623      4.5453145320
 H      3.0304470277      7.0810240284      4.6339788519
 H      1.8401478042      8.5388381699      2.1510340344
 C      1.0331653781      9.0378713632      1.6291523472
 C      1.1985425878      6.3353825596     -2.0156144105
 C      0.9351980509      7.5086354826     -1.3556994890
 C      1.8413845698      7.9515109833     -0.3361296253
 C      3.0147384985      7.3162198440     -0.0907427360
 C      3.2816612797      6.1227650763     -0.7423637136
 C      2.3900931943      5.6234216023     -1.6864205789
 C      4.5235585558      5.2972548205     -0.4869874764
 H      4.7140421418      5.9557558809      2.1815801575
 H      5.3608121448      5.9647354826     -0.3389571357
 H      3.7412412306      7.7303585904      0.5880691207
 O      1.4863235455      9.1970435570      0.2624266135
95
# ORCA AIMD Position Step 25, t=31.25 fs, E_Pot=-2377.69559430 Hartree, Unit is Angstrom
 C      0.7445492186      4.6214973051      1.4563645128
 O      0.2191643114      5.2354628767      2.3773059643
 O      1.2470336268      3.9957770583      0.5786534371
 C     -0.3225643556      1.0173263202      0.2520200996
 C     -1.0603622047      0.9077698222      1.4332167608
 C     -0.3793924845      0.7680950306      2.6268894402
 C     -1.0318708504      1.1217385626     -1.1062281773
 C     -1.3302294517      2.6153789843     -1.4127286459
 C     -2.4370826024      3.1206181457     -0.8586124461
 C     -2.7176160957      4.5023814281     -0.9866088459
 C     -0.7994956779      4.7893032969     -2.3205325053
 C     -0.4542981093      3.4183510829     -2.1217911233
 H     -3.1212679863      2.5079790554     -0.2925266107
 H     -0.4244436453      0.7217866246     -1.8961580418
 H     -1.9322425610      0.5612781702     -1.0309090725
 H     -2.1463674674      0.9248594390      1.3598476250
 O     -1.1341967910      0.7741380783      3.8091016511
 C     -1.7365571122      2.0562694400      4.1670542330
 C     -0.6998635537      3.0316747138      4.8019136156
 N     -1.1221368312      4.3234353903      5.1897425096
 H     -2.4321201958      1.7433521164      4.9616564132
 H     -2.2668338136      2.5322514419      3.3274904442
 H     -1.6110555589      4.2359798949      6.0738141549
 H     -3.8728356376      4.3366799828      2.4168356424
 H     -2.2535971885      4.5536880653      1.7633341698
 O      0.7223686714      2.9623914615     -2.6269374014
 H     -1.7497778654      4.7331175766      4.5079487679
 H     -0.2657944488      2.5214481822      5.6383663656
 H      0.1080942955      3.1187028590      4.0898838637
 C     -3.1458832789      5.0616357535      2.0776471789
 O     -3.8534580667      5.0153173040     -0.3922557721
 H      0.3643873715      5.7389372198      5.1977636821
 H      1.0589894660      2.1800244735     -2.0557873113
 C      1.0475159638      0.9677184296      0.2748432821
 C      1.0206338052      0.7229605790      2.6567271725
 C      1.7263688023      0.8258160389      1.4810889934
 C      4.3123851893      4.3733496347      0.7381055772
 C      4.1746349843      4.1013558876      3.1007821031
 C      3.9301029226      2.7419475944      2.9543329592
 C      3.7707723250      2.2166263454      1.6874185783
 C      3.9371298057      3.0255603060      0.5644732466